% Model:              model.mph
% Version:            COMSOL 5.4.0.346
% Date:               Nov 7 2019, 14:53
% Dimension:          2
% Nodes:              51
% Expressions:        2501
% Description:        Displacement field, Y component
% Length unit:        m
% X                       Y                        v (m) @ t=0              v (m) @ t=4E-4           v (m) @ t=8E-4           v (m) @ t=0.0012         v (m) @ t=0.0016         v (m) @ t=0.002          v (m) @ t=0.0024         v (m) @ t=0.0028         v (m) @ t=0.0032         v (m) @ t=0.0036         v (m) @ t=0.004          v (m) @ t=0.0044         v (m) @ t=0.0048         v (m) @ t=0.0052         v (m) @ t=0.0056         v (m) @ t=0.006          v (m) @ t=0.0064         v (m) @ t=0.0068         v (m) @ t=0.0072         v (m) @ t=0.0076         v (m) @ t=0.008          v (m) @ t=0.0084         v (m) @ t=0.0088         v (m) @ t=0.0092         v (m) @ t=0.0096         v (m) @ t=0.01           v (m) @ t=0.0104         v (m) @ t=0.0108         v (m) @ t=0.0112         v (m) @ t=0.0116         v (m) @ t=0.012          v (m) @ t=0.0124         v (m) @ t=0.0128         v (m) @ t=0.0132         v (m) @ t=0.0136         v (m) @ t=0.014          v (m) @ t=0.0144         v (m) @ t=0.0148         v (m) @ t=0.0152         v (m) @ t=0.0156         v (m) @ t=0.016          v (m) @ t=0.0164         v (m) @ t=0.0168         v (m) @ t=0.0172         v (m) @ t=0.0176         v (m) @ t=0.018          v (m) @ t=0.0184         v (m) @ t=0.0188         v (m) @ t=0.0192         v (m) @ t=0.0196         v (m) @ t=0.02           v (m) @ t=0.0204         v (m) @ t=0.0208         v (m) @ t=0.0212         v (m) @ t=0.0216         v (m) @ t=0.022          v (m) @ t=0.0224         v (m) @ t=0.0228         v (m) @ t=0.0232         v (m) @ t=0.0236         v (m) @ t=0.024          v (m) @ t=0.0244         v (m) @ t=0.0248         v (m) @ t=0.0252         v (m) @ t=0.0256         v (m) @ t=0.026          v (m) @ t=0.0264         v (m) @ t=0.0268         v (m) @ t=0.0272         v (m) @ t=0.0276         v (m) @ t=0.028          v (m) @ t=0.0284         v (m) @ t=0.0288         v (m) @ t=0.0292         v (m) @ t=0.0296         v (m) @ t=0.03           v (m) @ t=0.0304         v (m) @ t=0.0308         v (m) @ t=0.0312         v (m) @ t=0.0316         v (m) @ t=0.032          v (m) @ t=0.0324         v (m) @ t=0.0328         v (m) @ t=0.0332         v (m) @ t=0.0336         v (m) @ t=0.034          v (m) @ t=0.0344         v (m) @ t=0.0348         v (m) @ t=0.0352         v (m) @ t=0.0356         v (m) @ t=0.036          v (m) @ t=0.0364         v (m) @ t=0.0368         v (m) @ t=0.0372         v (m) @ t=0.0376         v (m) @ t=0.038          v (m) @ t=0.0384         v (m) @ t=0.0388         v (m) @ t=0.0392         v (m) @ t=0.0396         v (m) @ t=0.04           v (m) @ t=0.0404         v (m) @ t=0.0408         v (m) @ t=0.0412         v (m) @ t=0.0416         v (m) @ t=0.042          v (m) @ t=0.0424         v (m) @ t=0.0428         v (m) @ t=0.0432         v (m) @ t=0.0436         v (m) @ t=0.044          v (m) @ t=0.0444         v (m) @ t=0.0448         v (m) @ t=0.0452         v (m) @ t=0.0456         v (m) @ t=0.046          v (m) @ t=0.0464         v (m) @ t=0.0468         v (m) @ t=0.0472         v (m) @ t=0.0476         v (m) @ t=0.048          v (m) @ t=0.0484         v (m) @ t=0.0488         v (m) @ t=0.0492         v (m) @ t=0.0496         v (m) @ t=0.05           v (m) @ t=0.0504         v (m) @ t=0.0508         v (m) @ t=0.0512         v (m) @ t=0.0516         v (m) @ t=0.052          v (m) @ t=0.0524         v (m) @ t=0.0528         v (m) @ t=0.0532         v (m) @ t=0.0536         v (m) @ t=0.054          v (m) @ t=0.0544         v (m) @ t=0.0548         v (m) @ t=0.0552         v (m) @ t=0.0556         v (m) @ t=0.056          v (m) @ t=0.0564         v (m) @ t=0.0568         v (m) @ t=0.0572         v (m) @ t=0.0576         v (m) @ t=0.058          v (m) @ t=0.0584         v (m) @ t=0.0588         v (m) @ t=0.0592         v (m) @ t=0.0596         v (m) @ t=0.06           v (m) @ t=0.0604         v (m) @ t=0.0608         v (m) @ t=0.0612         v (m) @ t=0.0616         v (m) @ t=0.062          v (m) @ t=0.0624         v (m) @ t=0.0628         v (m) @ t=0.0632         v (m) @ t=0.0636         v (m) @ t=0.064          v (m) @ t=0.0644         v (m) @ t=0.0648         v (m) @ t=0.0652         v (m) @ t=0.0656         v (m) @ t=0.066          v (m) @ t=0.0664         v (m) @ t=0.0668         v (m) @ t=0.0672         v (m) @ t=0.0676         v (m) @ t=0.068          v (m) @ t=0.0684         v (m) @ t=0.0688         v (m) @ t=0.0692         v (m) @ t=0.0696         v (m) @ t=0.07           v (m) @ t=0.0704         v (m) @ t=0.0708         v (m) @ t=0.0712         v (m) @ t=0.0716         v (m) @ t=0.072          v (m) @ t=0.0724         v (m) @ t=0.0728         v (m) @ t=0.0732         v (m) @ t=0.0736         v (m) @ t=0.074          v (m) @ t=0.0744         v (m) @ t=0.0748         v (m) @ t=0.0752         v (m) @ t=0.0756         v (m) @ t=0.076          v (m) @ t=0.0764         v (m) @ t=0.0768         v (m) @ t=0.0772         v (m) @ t=0.0776         v (m) @ t=0.078          v (m) @ t=0.0784         v (m) @ t=0.0788         v (m) @ t=0.0792         v (m) @ t=0.0796         v (m) @ t=0.08           v (m) @ t=0.0804         v (m) @ t=0.0808         v (m) @ t=0.0812         v (m) @ t=0.0816         v (m) @ t=0.082          v (m) @ t=0.0824         v (m) @ t=0.0828         v (m) @ t=0.0832         v (m) @ t=0.0836         v (m) @ t=0.084          v (m) @ t=0.0844         v (m) @ t=0.0848         v (m) @ t=0.0852         v (m) @ t=0.0856         v (m) @ t=0.086          v (m) @ t=0.0864         v (m) @ t=0.0868         v (m) @ t=0.0872         v (m) @ t=0.0876         v (m) @ t=0.088          v (m) @ t=0.0884         v (m) @ t=0.0888         v (m) @ t=0.0892         v (m) @ t=0.0896         v (m) @ t=0.09           v (m) @ t=0.0904         v (m) @ t=0.0908         v (m) @ t=0.0912         v (m) @ t=0.0916         v (m) @ t=0.092          v (m) @ t=0.0924         v (m) @ t=0.0928         v (m) @ t=0.0932         v (m) @ t=0.0936         v (m) @ t=0.094          v (m) @ t=0.0944         v (m) @ t=0.0948         v (m) @ t=0.0952         v (m) @ t=0.0956         v (m) @ t=0.096          v (m) @ t=0.0964         v (m) @ t=0.0968         v (m) @ t=0.0972         v (m) @ t=0.0976         v (m) @ t=0.098          v (m) @ t=0.0984         v (m) @ t=0.0988         v (m) @ t=0.0992         v (m) @ t=0.0996         v (m) @ t=0.1            v (m) @ t=0.1004         v (m) @ t=0.1008         v (m) @ t=0.1012         v (m) @ t=0.1016         v (m) @ t=0.102          v (m) @ t=0.1024         v (m) @ t=0.1028         v (m) @ t=0.1032         v (m) @ t=0.1036         v (m) @ t=0.104          v (m) @ t=0.1044         v (m) @ t=0.1048         v (m) @ t=0.1052         v (m) @ t=0.1056         v (m) @ t=0.106          v (m) @ t=0.1064         v (m) @ t=0.1068         v (m) @ t=0.1072         v (m) @ t=0.1076         v (m) @ t=0.108          v (m) @ t=0.1084         v (m) @ t=0.1088         v (m) @ t=0.1092         v (m) @ t=0.1096         v (m) @ t=0.11           v (m) @ t=0.1104         v (m) @ t=0.1108         v (m) @ t=0.1112         v (m) @ t=0.1116         v (m) @ t=0.112          v (m) @ t=0.1124         v (m) @ t=0.1128         v (m) @ t=0.1132         v (m) @ t=0.1136         v (m) @ t=0.114          v (m) @ t=0.1144         v (m) @ t=0.1148         v (m) @ t=0.1152         v (m) @ t=0.1156         v (m) @ t=0.116          v (m) @ t=0.1164         v (m) @ t=0.1168         v (m) @ t=0.1172         v (m) @ t=0.1176         v (m) @ t=0.118          v (m) @ t=0.1184         v (m) @ t=0.1188         v (m) @ t=0.1192         v (m) @ t=0.1196         v (m) @ t=0.12           v (m) @ t=0.1204         v (m) @ t=0.1208         v (m) @ t=0.1212         v (m) @ t=0.1216         v (m) @ t=0.122          v (m) @ t=0.1224         v (m) @ t=0.1228         v (m) @ t=0.1232         v (m) @ t=0.1236         v (m) @ t=0.124          v (m) @ t=0.1244         v (m) @ t=0.1248         v (m) @ t=0.1252         v (m) @ t=0.1256         v (m) @ t=0.126          v (m) @ t=0.1264         v (m) @ t=0.1268         v (m) @ t=0.1272         v (m) @ t=0.1276         v (m) @ t=0.128          v (m) @ t=0.1284         v (m) @ t=0.1288         v (m) @ t=0.1292         v (m) @ t=0.1296         v (m) @ t=0.13           v (m) @ t=0.1304         v (m) @ t=0.1308         v (m) @ t=0.1312         v (m) @ t=0.1316         v (m) @ t=0.132          v (m) @ t=0.1324         v (m) @ t=0.1328         v (m) @ t=0.1332         v (m) @ t=0.1336         v (m) @ t=0.134          v (m) @ t=0.1344         v (m) @ t=0.1348         v (m) @ t=0.1352         v (m) @ t=0.1356         v (m) @ t=0.136          v (m) @ t=0.1364         v (m) @ t=0.1368         v (m) @ t=0.1372         v (m) @ t=0.1376         v (m) @ t=0.138          v (m) @ t=0.1384         v (m) @ t=0.1388         v (m) @ t=0.1392         v (m) @ t=0.1396         v (m) @ t=0.14           v (m) @ t=0.1404         v (m) @ t=0.1408         v (m) @ t=0.1412         v (m) @ t=0.1416         v (m) @ t=0.142          v (m) @ t=0.1424         v (m) @ t=0.1428         v (m) @ t=0.1432         v (m) @ t=0.1436         v (m) @ t=0.144          v (m) @ t=0.1444         v (m) @ t=0.1448         v (m) @ t=0.1452         v (m) @ t=0.1456         v (m) @ t=0.146          v (m) @ t=0.1464         v (m) @ t=0.1468         v (m) @ t=0.1472         v (m) @ t=0.1476         v (m) @ t=0.148          v (m) @ t=0.1484         v (m) @ t=0.1488         v (m) @ t=0.1492         v (m) @ t=0.1496         v (m) @ t=0.15           v (m) @ t=0.1504         v (m) @ t=0.1508         v (m) @ t=0.1512         v (m) @ t=0.1516         v (m) @ t=0.152          v (m) @ t=0.1524         v (m) @ t=0.1528         v (m) @ t=0.1532         v (m) @ t=0.1536         v (m) @ t=0.154          v (m) @ t=0.1544         v (m) @ t=0.1548         v (m) @ t=0.1552         v (m) @ t=0.1556         v (m) @ t=0.156          v (m) @ t=0.1564         v (m) @ t=0.1568         v (m) @ t=0.1572         v (m) @ t=0.1576         v (m) @ t=0.158          v (m) @ t=0.1584         v (m) @ t=0.1588         v (m) @ t=0.1592         v (m) @ t=0.1596         v (m) @ t=0.16           v (m) @ t=0.1604         v (m) @ t=0.1608         v (m) @ t=0.1612         v (m) @ t=0.1616         v (m) @ t=0.162          v (m) @ t=0.1624         v (m) @ t=0.1628         v (m) @ t=0.1632         v (m) @ t=0.1636         v (m) @ t=0.164          v (m) @ t=0.1644         v (m) @ t=0.1648         v (m) @ t=0.1652         v (m) @ t=0.1656         v (m) @ t=0.166          v (m) @ t=0.1664         v (m) @ t=0.1668         v (m) @ t=0.1672         v (m) @ t=0.1676         v (m) @ t=0.168          v (m) @ t=0.1684         v (m) @ t=0.1688         v (m) @ t=0.1692         v (m) @ t=0.1696         v (m) @ t=0.17           v (m) @ t=0.1704         v (m) @ t=0.1708         v (m) @ t=0.1712         v (m) @ t=0.1716         v (m) @ t=0.172          v (m) @ t=0.1724         v (m) @ t=0.1728         v (m) @ t=0.1732         v (m) @ t=0.1736         v (m) @ t=0.174          v (m) @ t=0.1744         v (m) @ t=0.1748         v (m) @ t=0.1752         v (m) @ t=0.1756         v (m) @ t=0.176          v (m) @ t=0.1764         v (m) @ t=0.1768         v (m) @ t=0.1772         v (m) @ t=0.1776         v (m) @ t=0.178          v (m) @ t=0.1784         v (m) @ t=0.1788         v (m) @ t=0.1792         v (m) @ t=0.1796         v (m) @ t=0.18           v (m) @ t=0.1804         v (m) @ t=0.1808         v (m) @ t=0.1812         v (m) @ t=0.1816         v (m) @ t=0.182          v (m) @ t=0.1824         v (m) @ t=0.1828         v (m) @ t=0.1832         v (m) @ t=0.1836         v (m) @ t=0.184          v (m) @ t=0.1844         v (m) @ t=0.1848         v (m) @ t=0.1852         v (m) @ t=0.1856         v (m) @ t=0.186          v (m) @ t=0.1864         v (m) @ t=0.1868         v (m) @ t=0.1872         v (m) @ t=0.1876         v (m) @ t=0.188          v (m) @ t=0.1884         v (m) @ t=0.1888         v (m) @ t=0.1892         v (m) @ t=0.1896         v (m) @ t=0.19           v (m) @ t=0.1904         v (m) @ t=0.1908         v (m) @ t=0.1912         v (m) @ t=0.1916         v (m) @ t=0.192          v (m) @ t=0.1924         v (m) @ t=0.1928         v (m) @ t=0.1932         v (m) @ t=0.1936         v (m) @ t=0.194          v (m) @ t=0.1944         v (m) @ t=0.1948         v (m) @ t=0.1952         v (m) @ t=0.1956         v (m) @ t=0.196          v (m) @ t=0.1964         v (m) @ t=0.1968         v (m) @ t=0.1972         v (m) @ t=0.1976         v (m) @ t=0.198          v (m) @ t=0.1984         v (m) @ t=0.1988         v (m) @ t=0.1992         v (m) @ t=0.1996         v (m) @ t=0.2            v (m) @ t=0.2004         v (m) @ t=0.2008         v (m) @ t=0.2012         v (m) @ t=0.2016         v (m) @ t=0.202          v (m) @ t=0.2024         v (m) @ t=0.2028         v (m) @ t=0.2032         v (m) @ t=0.2036         v (m) @ t=0.204          v (m) @ t=0.2044         v (m) @ t=0.2048         v (m) @ t=0.2052         v (m) @ t=0.2056         v (m) @ t=0.206          v (m) @ t=0.2064         v (m) @ t=0.2068         v (m) @ t=0.2072         v (m) @ t=0.2076         v (m) @ t=0.208          v (m) @ t=0.2084         v (m) @ t=0.2088         v (m) @ t=0.2092         v (m) @ t=0.2096         v (m) @ t=0.21           v (m) @ t=0.2104         v (m) @ t=0.2108         v (m) @ t=0.2112         v (m) @ t=0.2116         v (m) @ t=0.212          v (m) @ t=0.2124         v (m) @ t=0.2128         v (m) @ t=0.2132         v (m) @ t=0.2136         v (m) @ t=0.214          v (m) @ t=0.2144         v (m) @ t=0.2148         v (m) @ t=0.2152         v (m) @ t=0.2156         v (m) @ t=0.216          v (m) @ t=0.2164         v (m) @ t=0.2168         v (m) @ t=0.2172         v (m) @ t=0.2176         v (m) @ t=0.218          v (m) @ t=0.2184         v (m) @ t=0.2188         v (m) @ t=0.2192         v (m) @ t=0.2196         v (m) @ t=0.22           v (m) @ t=0.2204         v (m) @ t=0.2208         v (m) @ t=0.2212         v (m) @ t=0.2216         v (m) @ t=0.222          v (m) @ t=0.2224         v (m) @ t=0.2228         v (m) @ t=0.2232         v (m) @ t=0.2236         v (m) @ t=0.224          v (m) @ t=0.2244         v (m) @ t=0.2248         v (m) @ t=0.2252         v (m) @ t=0.2256         v (m) @ t=0.226          v (m) @ t=0.2264         v (m) @ t=0.2268         v (m) @ t=0.2272         v (m) @ t=0.2276         v (m) @ t=0.228          v (m) @ t=0.2284         v (m) @ t=0.2288         v (m) @ t=0.2292         v (m) @ t=0.2296         v (m) @ t=0.23           v (m) @ t=0.2304         v (m) @ t=0.2308         v (m) @ t=0.2312         v (m) @ t=0.2316         v (m) @ t=0.232          v (m) @ t=0.2324         v (m) @ t=0.2328         v (m) @ t=0.2332         v (m) @ t=0.2336         v (m) @ t=0.234          v (m) @ t=0.2344         v (m) @ t=0.2348         v (m) @ t=0.2352         v (m) @ t=0.2356         v (m) @ t=0.236          v (m) @ t=0.2364         v (m) @ t=0.2368         v (m) @ t=0.2372         v (m) @ t=0.2376         v (m) @ t=0.238          v (m) @ t=0.2384         v (m) @ t=0.2388         v (m) @ t=0.2392         v (m) @ t=0.2396         v (m) @ t=0.24           v (m) @ t=0.2404         v (m) @ t=0.2408         v (m) @ t=0.2412         v (m) @ t=0.2416         v (m) @ t=0.242          v (m) @ t=0.2424         v (m) @ t=0.2428         v (m) @ t=0.2432         v (m) @ t=0.2436         v (m) @ t=0.244          v (m) @ t=0.2444         v (m) @ t=0.2448         v (m) @ t=0.2452         v (m) @ t=0.2456         v (m) @ t=0.246          v (m) @ t=0.2464         v (m) @ t=0.2468         v (m) @ t=0.2472         v (m) @ t=0.2476         v (m) @ t=0.248          v (m) @ t=0.2484         v (m) @ t=0.2488         v (m) @ t=0.2492         v (m) @ t=0.2496         v (m) @ t=0.25           v (m) @ t=0.2504         v (m) @ t=0.2508         v (m) @ t=0.2512         v (m) @ t=0.2516         v (m) @ t=0.252          v (m) @ t=0.2524         v (m) @ t=0.2528         v (m) @ t=0.2532         v (m) @ t=0.2536         v (m) @ t=0.254          v (m) @ t=0.2544         v (m) @ t=0.2548         v (m) @ t=0.2552         v (m) @ t=0.2556         v (m) @ t=0.256          v (m) @ t=0.2564         v (m) @ t=0.2568         v (m) @ t=0.2572         v (m) @ t=0.2576         v (m) @ t=0.258          v (m) @ t=0.2584         v (m) @ t=0.2588         v (m) @ t=0.2592         v (m) @ t=0.2596         v (m) @ t=0.26           v (m) @ t=0.2604         v (m) @ t=0.2608         v (m) @ t=0.2612         v (m) @ t=0.2616         v (m) @ t=0.262          v (m) @ t=0.2624         v (m) @ t=0.2628         v (m) @ t=0.2632         v (m) @ t=0.2636         v (m) @ t=0.264          v (m) @ t=0.2644         v (m) @ t=0.2648         v (m) @ t=0.2652         v (m) @ t=0.2656         v (m) @ t=0.266          v (m) @ t=0.2664         v (m) @ t=0.2668         v (m) @ t=0.2672         v (m) @ t=0.2676         v (m) @ t=0.268          v (m) @ t=0.2684         v (m) @ t=0.2688         v (m) @ t=0.2692         v (m) @ t=0.2696         v (m) @ t=0.27           v (m) @ t=0.2704         v (m) @ t=0.2708         v (m) @ t=0.2712         v (m) @ t=0.2716         v (m) @ t=0.272          v (m) @ t=0.2724         v (m) @ t=0.2728         v (m) @ t=0.2732         v (m) @ t=0.2736         v (m) @ t=0.274          v (m) @ t=0.2744         v (m) @ t=0.2748         v (m) @ t=0.2752         v (m) @ t=0.2756         v (m) @ t=0.276          v (m) @ t=0.2764         v (m) @ t=0.2768         v (m) @ t=0.2772         v (m) @ t=0.2776         v (m) @ t=0.278          v (m) @ t=0.2784         v (m) @ t=0.2788         v (m) @ t=0.2792         v (m) @ t=0.2796         v (m) @ t=0.28           v (m) @ t=0.2804         v (m) @ t=0.2808         v (m) @ t=0.2812         v (m) @ t=0.2816         v (m) @ t=0.282          v (m) @ t=0.2824         v (m) @ t=0.2828         v (m) @ t=0.2832         v (m) @ t=0.2836         v (m) @ t=0.284          v (m) @ t=0.2844         v (m) @ t=0.2848         v (m) @ t=0.2852         v (m) @ t=0.2856         v (m) @ t=0.286          v (m) @ t=0.2864         v (m) @ t=0.2868         v (m) @ t=0.2872         v (m) @ t=0.2876         v (m) @ t=0.288          v (m) @ t=0.2884         v (m) @ t=0.2888         v (m) @ t=0.2892         v (m) @ t=0.2896         v (m) @ t=0.29           v (m) @ t=0.2904         v (m) @ t=0.2908         v (m) @ t=0.2912         v (m) @ t=0.2916         v (m) @ t=0.292          v (m) @ t=0.2924         v (m) @ t=0.2928         v (m) @ t=0.2932         v (m) @ t=0.2936         v (m) @ t=0.294          v (m) @ t=0.2944         v (m) @ t=0.2948         v (m) @ t=0.2952         v (m) @ t=0.2956         v (m) @ t=0.296          v (m) @ t=0.2964         v (m) @ t=0.2968         v (m) @ t=0.2972         v (m) @ t=0.2976         v (m) @ t=0.298          v (m) @ t=0.2984         v (m) @ t=0.2988         v (m) @ t=0.2992         v (m) @ t=0.2996         v (m) @ t=0.3            v (m) @ t=0.3004         v (m) @ t=0.3008         v (m) @ t=0.3012         v (m) @ t=0.3016         v (m) @ t=0.302          v (m) @ t=0.3024         v (m) @ t=0.3028         v (m) @ t=0.3032         v (m) @ t=0.3036         v (m) @ t=0.304          v (m) @ t=0.3044         v (m) @ t=0.3048         v (m) @ t=0.3052         v (m) @ t=0.3056         v (m) @ t=0.306          v (m) @ t=0.3064         v (m) @ t=0.3068         v (m) @ t=0.3072         v (m) @ t=0.3076         v (m) @ t=0.308          v (m) @ t=0.3084         v (m) @ t=0.3088         v (m) @ t=0.3092         v (m) @ t=0.3096         v (m) @ t=0.31           v (m) @ t=0.3104         v (m) @ t=0.3108         v (m) @ t=0.3112         v (m) @ t=0.3116         v (m) @ t=0.312          v (m) @ t=0.3124         v (m) @ t=0.3128         v (m) @ t=0.3132         v (m) @ t=0.3136         v (m) @ t=0.314          v (m) @ t=0.3144         v (m) @ t=0.3148         v (m) @ t=0.3152         v (m) @ t=0.3156         v (m) @ t=0.316          v (m) @ t=0.3164         v (m) @ t=0.3168         v (m) @ t=0.3172         v (m) @ t=0.3176         v (m) @ t=0.318          v (m) @ t=0.3184         v (m) @ t=0.3188         v (m) @ t=0.3192         v (m) @ t=0.3196         v (m) @ t=0.32           v (m) @ t=0.3204         v (m) @ t=0.3208         v (m) @ t=0.3212         v (m) @ t=0.3216         v (m) @ t=0.322          v (m) @ t=0.3224         v (m) @ t=0.3228         v (m) @ t=0.3232         v (m) @ t=0.3236         v (m) @ t=0.324          v (m) @ t=0.3244         v (m) @ t=0.3248         v (m) @ t=0.3252         v (m) @ t=0.3256         v (m) @ t=0.326          v (m) @ t=0.3264         v (m) @ t=0.3268         v (m) @ t=0.3272         v (m) @ t=0.3276         v (m) @ t=0.328          v (m) @ t=0.3284         v (m) @ t=0.3288         v (m) @ t=0.3292         v (m) @ t=0.3296         v (m) @ t=0.33           v (m) @ t=0.3304         v (m) @ t=0.3308         v (m) @ t=0.3312         v (m) @ t=0.3316         v (m) @ t=0.332          v (m) @ t=0.3324         v (m) @ t=0.3328         v (m) @ t=0.3332         v (m) @ t=0.3336         v (m) @ t=0.334          v (m) @ t=0.3344         v (m) @ t=0.3348         v (m) @ t=0.3352         v (m) @ t=0.3356         v (m) @ t=0.336          v (m) @ t=0.3364         v (m) @ t=0.3368         v (m) @ t=0.3372         v (m) @ t=0.3376         v (m) @ t=0.338          v (m) @ t=0.3384         v (m) @ t=0.3388         v (m) @ t=0.3392         v (m) @ t=0.3396         v (m) @ t=0.34           v (m) @ t=0.3404         v (m) @ t=0.3408         v (m) @ t=0.3412         v (m) @ t=0.3416         v (m) @ t=0.342          v (m) @ t=0.3424         v (m) @ t=0.3428         v (m) @ t=0.3432         v (m) @ t=0.3436         v (m) @ t=0.344          v (m) @ t=0.3444         v (m) @ t=0.3448         v (m) @ t=0.3452         v (m) @ t=0.3456         v (m) @ t=0.346          v (m) @ t=0.3464         v (m) @ t=0.3468         v (m) @ t=0.3472         v (m) @ t=0.3476         v (m) @ t=0.348          v (m) @ t=0.3484         v (m) @ t=0.3488         v (m) @ t=0.3492         v (m) @ t=0.3496         v (m) @ t=0.35           v (m) @ t=0.3504         v (m) @ t=0.3508         v (m) @ t=0.3512         v (m) @ t=0.3516         v (m) @ t=0.352          v (m) @ t=0.3524         v (m) @ t=0.3528         v (m) @ t=0.3532         v (m) @ t=0.3536         v (m) @ t=0.354          v (m) @ t=0.3544         v (m) @ t=0.3548         v (m) @ t=0.3552         v (m) @ t=0.3556         v (m) @ t=0.356          v (m) @ t=0.3564         v (m) @ t=0.3568         v (m) @ t=0.3572         v (m) @ t=0.3576         v (m) @ t=0.358          v (m) @ t=0.3584         v (m) @ t=0.3588         v (m) @ t=0.3592         v (m) @ t=0.3596         v (m) @ t=0.36           v (m) @ t=0.3604         v (m) @ t=0.3608         v (m) @ t=0.3612         v (m) @ t=0.3616         v (m) @ t=0.362          v (m) @ t=0.3624         v (m) @ t=0.3628         v (m) @ t=0.3632         v (m) @ t=0.3636         v (m) @ t=0.364          v (m) @ t=0.3644         v (m) @ t=0.3648         v (m) @ t=0.3652         v (m) @ t=0.3656         v (m) @ t=0.366          v (m) @ t=0.3664         v (m) @ t=0.3668         v (m) @ t=0.3672         v (m) @ t=0.3676         v (m) @ t=0.368          v (m) @ t=0.3684         v (m) @ t=0.3688         v (m) @ t=0.3692         v (m) @ t=0.3696         v (m) @ t=0.37           v (m) @ t=0.3704         v (m) @ t=0.3708         v (m) @ t=0.3712         v (m) @ t=0.3716         v (m) @ t=0.372          v (m) @ t=0.3724         v (m) @ t=0.3728         v (m) @ t=0.3732         v (m) @ t=0.3736         v (m) @ t=0.374          v (m) @ t=0.3744         v (m) @ t=0.3748         v (m) @ t=0.3752         v (m) @ t=0.3756         v (m) @ t=0.376          v (m) @ t=0.3764         v (m) @ t=0.3768         v (m) @ t=0.3772         v (m) @ t=0.3776         v (m) @ t=0.378          v (m) @ t=0.3784         v (m) @ t=0.3788         v (m) @ t=0.3792         v (m) @ t=0.3796         v (m) @ t=0.38           v (m) @ t=0.3804         v (m) @ t=0.3808         v (m) @ t=0.3812         v (m) @ t=0.3816         v (m) @ t=0.382          v (m) @ t=0.3824         v (m) @ t=0.3828         v (m) @ t=0.3832         v (m) @ t=0.3836         v (m) @ t=0.384          v (m) @ t=0.3844         v (m) @ t=0.3848         v (m) @ t=0.3852         v (m) @ t=0.3856         v (m) @ t=0.386          v (m) @ t=0.3864         v (m) @ t=0.3868         v (m) @ t=0.3872         v (m) @ t=0.3876         v (m) @ t=0.388          v (m) @ t=0.3884         v (m) @ t=0.3888         v (m) @ t=0.3892         v (m) @ t=0.3896         v (m) @ t=0.39           v (m) @ t=0.3904         v (m) @ t=0.3908         v (m) @ t=0.3912         v (m) @ t=0.3916         v (m) @ t=0.392          v (m) @ t=0.3924         v (m) @ t=0.3928         v (m) @ t=0.3932         v (m) @ t=0.3936         v (m) @ t=0.394          v (m) @ t=0.3944         v (m) @ t=0.3948         v (m) @ t=0.3952         v (m) @ t=0.3956         v (m) @ t=0.396          v (m) @ t=0.3964         v (m) @ t=0.3968         v (m) @ t=0.3972         v (m) @ t=0.3976         v (m) @ t=0.398          v (m) @ t=0.3984         v (m) @ t=0.3988         v (m) @ t=0.3992         v (m) @ t=0.3996         v (m) @ t=0.4            v (m) @ t=0.4004         v (m) @ t=0.4008         v (m) @ t=0.4012         v (m) @ t=0.4016         v (m) @ t=0.402          v (m) @ t=0.4024         v (m) @ t=0.4028         v (m) @ t=0.4032         v (m) @ t=0.4036         v (m) @ t=0.404          v (m) @ t=0.4044         v (m) @ t=0.4048         v (m) @ t=0.4052         v (m) @ t=0.4056         v (m) @ t=0.406          v (m) @ t=0.4064         v (m) @ t=0.4068         v (m) @ t=0.4072         v (m) @ t=0.4076         v (m) @ t=0.408          v (m) @ t=0.4084         v (m) @ t=0.4088         v (m) @ t=0.4092         v (m) @ t=0.4096         v (m) @ t=0.41           v (m) @ t=0.4104         v (m) @ t=0.4108         v (m) @ t=0.4112         v (m) @ t=0.4116         v (m) @ t=0.412          v (m) @ t=0.4124         v (m) @ t=0.4128         v (m) @ t=0.4132         v (m) @ t=0.4136         v (m) @ t=0.414          v (m) @ t=0.4144         v (m) @ t=0.4148         v (m) @ t=0.4152         v (m) @ t=0.4156         v (m) @ t=0.416          v (m) @ t=0.4164         v (m) @ t=0.4168         v (m) @ t=0.4172         v (m) @ t=0.4176         v (m) @ t=0.418          v (m) @ t=0.4184         v (m) @ t=0.4188         v (m) @ t=0.4192         v (m) @ t=0.4196         v (m) @ t=0.42           v (m) @ t=0.4204         v (m) @ t=0.4208         v (m) @ t=0.4212         v (m) @ t=0.4216         v (m) @ t=0.422          v (m) @ t=0.4224         v (m) @ t=0.4228         v (m) @ t=0.4232         v (m) @ t=0.4236         v (m) @ t=0.424          v (m) @ t=0.4244         v (m) @ t=0.4248         v (m) @ t=0.4252         v (m) @ t=0.4256         v (m) @ t=0.426          v (m) @ t=0.4264         v (m) @ t=0.4268         v (m) @ t=0.4272         v (m) @ t=0.4276         v (m) @ t=0.428          v (m) @ t=0.4284         v (m) @ t=0.4288         v (m) @ t=0.4292         v (m) @ t=0.4296         v (m) @ t=0.43           v (m) @ t=0.4304         v (m) @ t=0.4308         v (m) @ t=0.4312         v (m) @ t=0.4316         v (m) @ t=0.432          v (m) @ t=0.4324         v (m) @ t=0.4328         v (m) @ t=0.4332         v (m) @ t=0.4336         v (m) @ t=0.434          v (m) @ t=0.4344         v (m) @ t=0.4348         v (m) @ t=0.4352         v (m) @ t=0.4356         v (m) @ t=0.436          v (m) @ t=0.4364         v (m) @ t=0.4368         v (m) @ t=0.4372         v (m) @ t=0.4376         v (m) @ t=0.438          v (m) @ t=0.4384         v (m) @ t=0.4388         v (m) @ t=0.4392         v (m) @ t=0.4396         v (m) @ t=0.44           v (m) @ t=0.4404         v (m) @ t=0.4408         v (m) @ t=0.4412         v (m) @ t=0.4416         v (m) @ t=0.442          v (m) @ t=0.4424         v (m) @ t=0.4428         v (m) @ t=0.4432         v (m) @ t=0.4436         v (m) @ t=0.444          v (m) @ t=0.4444         v (m) @ t=0.4448         v (m) @ t=0.4452         v (m) @ t=0.4456         v (m) @ t=0.446          v (m) @ t=0.4464         v (m) @ t=0.4468         v (m) @ t=0.4472         v (m) @ t=0.4476         v (m) @ t=0.448          v (m) @ t=0.4484         v (m) @ t=0.4488         v (m) @ t=0.4492         v (m) @ t=0.4496         v (m) @ t=0.45           v (m) @ t=0.4504         v (m) @ t=0.4508         v (m) @ t=0.4512         v (m) @ t=0.4516         v (m) @ t=0.452          v (m) @ t=0.4524         v (m) @ t=0.4528         v (m) @ t=0.4532         v (m) @ t=0.4536         v (m) @ t=0.454          v (m) @ t=0.4544         v (m) @ t=0.4548         v (m) @ t=0.4552         v (m) @ t=0.4556         v (m) @ t=0.456          v (m) @ t=0.4564         v (m) @ t=0.4568         v (m) @ t=0.4572         v (m) @ t=0.4576         v (m) @ t=0.458          v (m) @ t=0.4584         v (m) @ t=0.4588         v (m) @ t=0.4592         v (m) @ t=0.4596         v (m) @ t=0.46           v (m) @ t=0.4604         v (m) @ t=0.4608         v (m) @ t=0.4612         v (m) @ t=0.4616         v (m) @ t=0.462          v (m) @ t=0.4624         v (m) @ t=0.4628         v (m) @ t=0.4632         v (m) @ t=0.4636         v (m) @ t=0.464          v (m) @ t=0.4644         v (m) @ t=0.4648         v (m) @ t=0.4652         v (m) @ t=0.4656         v (m) @ t=0.466          v (m) @ t=0.4664         v (m) @ t=0.4668         v (m) @ t=0.4672         v (m) @ t=0.4676         v (m) @ t=0.468          v (m) @ t=0.4684         v (m) @ t=0.4688         v (m) @ t=0.4692         v (m) @ t=0.4696         v (m) @ t=0.47           v (m) @ t=0.4704         v (m) @ t=0.4708         v (m) @ t=0.4712         v (m) @ t=0.4716         v (m) @ t=0.472          v (m) @ t=0.4724         v (m) @ t=0.4728         v (m) @ t=0.4732         v (m) @ t=0.4736         v (m) @ t=0.474          v (m) @ t=0.4744         v (m) @ t